<?xml version="1.0"?>
<VTKFile type="UnstructuredGrid"  version="0.1"  >
<UnstructuredGrid>
<Piece  NumberOfPoints="10201" NumberOfCells="20000">
<Points>
<DataArray  type="Float64"  NumberOfComponents="3"  format="ascii">0 0 0  0.01 0 0  0.02 0 0  0.03 0 0  0.04 0 0  0.05 0 0  0.06 0 0  0.07000000000000001 0 0  0.08 0 0  0.09 0 0  0.1 0 0  0.11 0 0  0.12 0 0  0.13 0 0  0.14 0 0  0.15 0 0  0.16 0 0  0.17 0 0  0.18 0 0  0.19 0 0  0.2 0 0  0.21 0 0  0.22 0 0  0.23 0 0  0.24 0 0  0.25 0 0  0.26 0 0  0.27 0 0  0.28 0 0  0.29 0 0  0.3 0 0  0.31 0 0  0.32 0 0  0.33 0 0  0.34 0 0  0.35 0 0  0.36 0 0  0.37 0 0  0.38 0 0  0.39 0 0  0.4 0 0  0.41 0 0  0.42 0 0  0.43 0 0  0.44 0 0  0.45 0 0  0.46 0 0  0.47 0 0  0.48 0 0  0.49 0 0  0.5 0 0  0.51 0 0  0.52 0 0  0.53 0 0  0.54 0 0  0.55 0 0  0.5600000000000001 0 0  0.57 0 0  0.58 0 0  0.59 0 0  0.6 0 0  0.61 0 0  0.62 0 0  0.63 0 0  0.64 0 0  0.65 0 0  0.66 0 0  0.67 0 0  0.68 0 0  0.6899999999999999 0 0  0.7 0 0  0.71 0 0  0.72 0 0  0.73 0 0  0.74 0 0  0.75 0 0  0.76 0 0  0.77 0 0  0.78 0 0  0.79 0 0  0.8 0 0  0.8100000000000001 0 0  0.82 0 0  0.83 0 0  0.84 0 0  0.85 0 0  0.86 0 0  0.87 0 0  0.88 0 0  0.89 0 0  0.9 0 0  0.91 0 0  0.92 0 0  0.93 0 0  0.9399999999999999 0 0  0.95 0 0  0.96 0 0  0.97 0 0  0.98 0 0  0.99 0 0  1 0 0  0 0.01 0  0.01 0.01 0  0.02 0.01 0  0.03 0.01 0  0.04 0.01 0  0.05 0.01 0  0.06 0.01 0  0.07000000000000001 0.01 0  0.08 0.01 0  0.09 0.01 0  0.1 0.01 0  0.11 0.01 0  0.12 0.01 0  0.13 0.01 0  0.14 0.01 0  0.15 0.01 0  0.16 0.01 0  0.17 0.01 0  0.18 0.01 0  0.19 0.01 0  0.2 0.01 0  0.21 0.01 0  0.22 0.01 0  0.23 0.01 0  0.24 0.01 0  0.25 0.01 0  0.26 0.01 0  0.27 0.01 0  0.28 0.01 0  0.29 0.01 0  0.3 0.01 0  0.31 0.01 0  0.32 0.01 0  0.33 0.01 0  0.34 0.01 0  0.35 0.01 0  0.36 0.01 0  0.37 0.01 0  0.38 0.01 0  0.39 0.01 0  0.4 0.01 0  0.41 0.01 0  0.42 0.01 0  0.43 0.01 0  0.44 0.01 0  0.45 0.01 0  0.46 0.01 0  0.47 0.01 0  0.48 0.01 0  0.49 0.01 0  0.5 0.01 0  0.51 0.01 0  0.52 0.01 0  0.53 0.01 0  0.54 0.01 0  0.55 0.01 0  0.5600000000000001 0.01 0  0.57 0.01 0  0.58 0.01 0  0.59 0.01 0  0.6 0.01 0  0.61 0.01 0  0.62 0.01 0  0.63 0.01 0  0.64 0.01 0  0.65 0.01 0  0.66 0.01 0  0.67 0.01 0  0.68 0.01 0  0.6899999999999999 0.01 0  0.7 0.01 0  0.71 0.01 0  0.72 0.01 0  0.73 0.01 0  0.74 0.01 0  0.75 0.01 0  0.76 0.01 0  0.77 0.01 0  0.78 0.01 0  0.79 0.01 0  0.8 0.01 0  0.8100000000000001 0.01 0  0.82 0.01 0  0.83 0.01 0  0.84 0.01 0  0.85 0.01 0  0.86 0.01 0  0.87 0.01 0  0.88 0.01 0  0.89 0.01 0  0.9 0.01 0  0.91 0.01 0  0.92 0.01 0  0.93 0.01 0  0.9399999999999999 0.01 0  0.95 0.01 0  0.96 0.01 0  0.97 0.01 0  0.98 0.01 0  0.99 0.01 0  1 0.01 0  0 0.02 0  0.01 0.02 0  0.02 0.02 0  0.03 0.02 0  0.04 0.02 0  0.05 0.02 0  0.06 0.02 0  0.07000000000000001 0.02 0  0.08 0.02 0  0.09 0.02 0  0.1 0.02 0  0.11 0.02 0  0.12 0.02 0  0.13 0.02 0  0.14 0.02 0  0.15 0.02 0  0.16 0.02 0  0.17 0.02 0  0.18 0.02 0  0.19 0.02 0  0.2 0.02 0  0.21 0.02 0  0.22 0.02 0  0.23 0.02 0  0.24 0.02 0  0.25 0.02 0  0.26 0.02 0  0.27 0.02 0  0.28 0.02 0  0.29 0.02 0  0.3 0.02 0  0.31 0.02 0  0.32 0.02 0  0.33 0.02 0  0.34 0.02 0  0.35 0.02 0  0.36 0.02 0  0.37 0.02 0  0.38 0.02 0  0.39 0.02 0  0.4 0.02 0  0.41 0.02 0  0.42 0.02 0  0.43 0.02 0  0.44 0.02 0  0.45 0.02 0  0.46 0.02 0  0.47 0.02 0  0.48 0.02 0  0.49 0.02 0  0.5 0.02 0  0.51 0.02 0  0.52 0.02 0  0.53 0.02 0  0.54 0.02 0  0.55 0.02 0  0.5600000000000001 0.02 0  0.57 0.02 0  0.58 0.02 0  0.59 0.02 0  0.6 0.02 0  0.61 0.02 0  0.62 0.02 0  0.63 0.02 0  0.64 0.02 0  0.65 0.02 0  0.66 0.02 0  0.67 0.02 0  0.68 0.02 0  0.6899999999999999 0.02 0  0.7 0.02 0  0.71 0.02 0  0.72 0.02 0  0.73 0.02 0  0.74 0.02 0  0.75 0.02 0  0.76 0.02 0  0.77 0.02 0  0.78 0.02 0  0.79 0.02 0  0.8 0.02 0  0.8100000000000001 0.02 0  0.82 0.02 0  0.83 0.02 0  0.84 0.02 0  0.85 0.02 0  0.86 0.02 0  0.87 0.02 0  0.88 0.02 0  0.89 0.02 0  0.9 0.02 0  0.91 0.02 0  0.92 0.02 0  0.93 0.02 0  0.9399999999999999 0.02 0  0.95 0.02 0  0.96 0.02 0  0.97 0.02 0  0.98 0.02 0  0.99 0.02 0  1 0.02 0  0 0.03 0  0.01 0.03 0  0.02 0.03 0  0.03 0.03 0  0.04 0.03 0  0.05 0.03 0  0.06 0.03 0  0.07000000000000001 0.03 0  0.08 0.03 0  0.09 0.03 0  0.1 0.03 0  0.11 0.03 0  0.12 0.03 0  0.13 0.03 0  0.14 0.03 0  0.15 0.03 0  0.16 0.03 0  0.17 0.03 0  0.18 0.03 0  0.19 0.03 0  0.2 0.03 0  0.21 0.03 0  0.22 0.03 0  0.23 0.03 0  0.24 0.03 0  0.25 0.03 0  0.26 0.03 0  0.27 0.03 0  0.28 0.03 0  0.29 0.03 0  0.3 0.03 0  0.31 0.03 0  0.32 0.03 0  0.33 0.03 0  0.34 0.03 0  0.35 0.03 0  0.36 0.03 0  0.37 0.03 0  0.38 0.03 0  0.39 0.03 0  0.4 0.03 0  0.41 0.03 0  0.42 0.03 0  0.43 0.03 0  0.44 0.03 0  0.45 0.03 0  0.46 0.03 0  0.47 0.03 0  0.48 0.03 0  0.49 0.03 0  0.5 0.03 0  0.51 0.03 0  0.52 0.03 0  0.53 0.03 0  0.54 0.03 0  0.55 0.03 0  0.5600000000000001 0.03 0  0.57 0.03 0  0.58 0.03 0  0.59 0.03 0  0.6 0.03 0  0.61 0.03 0  0.62 0.03 0  0.63 0.03 0  0.64 0.03 0  0.65 0.03 0  0.66 0.03 0  0.67 0.03 0  0.68 0.03 0  0.6899999999999999 0.03 0  0.7 0.03 0  0.71 0.03 0  0.72 0.03 0  0.73 0.03 0  0.74 0.03 0  0.75 0.03 0  0.76 0.03 0  0.77 0.03 0  0.78 0.03 0  0.79 0.03 0  0.8 0.03 0  0.8100000000000001 0.03 0  0.82 0.03 0  0.83 0.03 0  0.84 0.03 0  0.85 0.03 0  0.86 0.03 0  0.87 0.03 0  0.88 0.03 0  0.89 0.03 0  0.9 0.03 0  0.91 0.03 0  0.92 0.03 0  0.93 0.03 0  0.9399999999999999 0.03 0  0.95 0.03 0  0.96 0.03 0  0.97 0.03 0  0.98 0.03 0  0.99 0.03 0  1 0.03 0  0 0.04 0  0.01 0.04 0  0.02 0.04 0  0.03 0.04 0  0.04 0.04 0  0.05 0.04 0  0.06 0.04 0  0.07000000000000001 0.04 0  0.08 0.04 0  0.09 0.04 0  0.1 0.04 0  0.11 0.04 0  0.12 0.04 0  0.13 0.04 0  0.14 0.04 0  0.15 0.04 0  0.16 0.04 0  0.17 0.04 0  0.18 0.04 0  0.19 0.04 0  0.2 0.04 0  0.21 0.04 0  0.22 0.04 0  0.23 0.04 0  0.24 0.04 0  0.25 0.04 0  0.26 0.04 0  0.27 0.04 0  0.28 0.04 0  0.29 0.04 0  0.3 0.04 0  0.31 0.04 0  0.32 0.04 0  0.33 0.04 0  0.34 0.04 0  0.35 0.04 0  0.36 0.04 0  0.37 0.04 0  0.38 0.04 0  0.39 0.04 0  0.4 0.04 0  0.41 0.04 0  0.42 0.04 0  0.43 0.04 0  0.44 0.04 0  0.45 0.04 0  0.46 0.04 0  0.47 0.04 0  0.48 0.04 0  0.49 0.04 0  0.5 0.04 0  0.51 0.04 0  0.52 0.04 0  0.53 0.04 0  0.54 0.04 0  0.55 0.04 0  0.5600000000000001 0.04 0  0.57 0.04 0  0.58 0.04 0  0.59 0.04 0  0.6 0.04 0  0.61 0.04 0  0.62 0.04 0  0.63 0.04 0  0.64 0.04 0  0.65 0.04 0  0.66 0.04 0  0.67 0.04 0  0.68 0.04 0  0.6899999999999999 0.04 0  0.7 0.04 0  0.71 0.04 0  0.72 0.04 0  0.73 0.04 0  0.74 0.04 0  0.75 0.04 0  0.76 0.04 0  0.77 0.04 0  0.78 0.04 0  0.79 0.04 0  0.8 0.04 0  0.8100000000000001 0.04 0  0.82 0.04 0  0.83 0.04 0  0.84 0.04 0  0.85 0.04 0  0.86 0.04 0  0.87 0.04 0  0.88 0.04 0  0.89 0.04 0  0.9 0.04 0  0.91 0.04 0  0.92 0.04 0  0.93 0.04 0  0.9399999999999999 0.04 0  0.95 0.04 0  0.96 0.04 0  0.97 0.04 0  0.98 0.04 0  0.99 0.04 0  1 0.04 0  0 0.05 0  0.01 0.05 0  0.02 0.05 0  0.03 0.05 0  0.04 0.05 0  0.05 0.05 0  0.06 0.05 0  0.07000000000000001 0.05 0  0.08 0.05 0  0.09 0.05 0  0.1 0.05 0  0.11 0.05 0  0.12 0.05 0  0.13 0.05 0  0.14 0.05 0  0.15 0.05 0  0.16 0.05 0  0.17 0.05 0  0.18 0.05 0  0.19 0.05 0  0.2 0.05 0  0.21 0.05 0  0.22 0.05 0  0.23 0.05 0  0.24 0.05 0  0.25 0.05 0  0.26 0.05 0  0.27 0.05 0  0.28 0.05 0  0.29 0.05 0  0.3 0.05 0  0.31 0.05 0  0.32 0.05 0  0.33 0.05 0  0.34 0.05 0  0.35 0.05 0  0.36 0.05 0  0.37 0.05 0  0.38 0.05 0  0.39 0.05 0  0.4 0.05 0  0.41 0.05 0  0.42 0.05 0  0.43 0.05 0  0.44 0.05 0  0.45 0.05 0  0.46 0.05 0  0.47 0.05 0  0.48 0.05 0  0.49 0.05 0  0.5 0.05 0  0.51 0.05 0  0.52 0.05 0  0.53 0.05 0  0.54 0.05 0  0.55 0.05 0  0.5600000000000001 0.05 0  0.57 0.05 0  0.58 0.05 0  0.59 0.05 0  0.6 0.05 0  0.61 0.05 0  0.62 0.05 0  0.63 0.05 0  0.64 0.05 0  0.65 0.05 0  0.66 0.05 0  0.67 0.05 0  0.68 0.05 0  0.6899999999999999 0.05 0  0.7 0.05 0  0.71 0.05 0  0.72 0.05 0  0.73 0.05 0  0.74 0.05 0  0.75 0.05 0  0.76 0.05 0  0.77 0.05 0  0.78 0.05 0  0.79 0.05 0  0.8 0.05 0  0.8100000000000001 0.05 0  0.82 0.05 0  0.83 0.05 0  0.84 0.05 0  0.85 0.05 0  0.86 0.05 0  0.87 0.05 0  0.88 0.05 0  0.89 0.05 0  0.9 0.05 0  0.91 0.05 0  0.92 0.05 0  0.93 0.05 0  0.9399999999999999 0.05 0  0.95 0.05 0  0.96 0.05 0  0.97 0.05 0  0.98 0.05 0  0.99 0.05 0  1 0.05 0  0 0.06 0  0.01 0.06 0  0.02 0.06 0  0.03 0.06 0  0.04 0.06 0  0.05 0.06 0  0.06 0.06 0  0.07000000000000001 0.06 0  0.08 0.06 0  0.09 0.06 0  0.1 0.06 0  0.11 0.06 0  0.12 0.06 0  0.13 0.06 0  0.14 0.06 0  0.15 0.06 0  0.16 0.06 0  0.17 0.06 0  0.18 0.06 0  0.19 0.06 0  0.2 0.06 0  0.21 0.06 0  0.22 0.06 0  0.23 0.06 0  0.24 0.06 0  0.25 0.06 0  0.26 0.06 0  0.27 0.06 0  0.28 0.06 0  0.29 0.06 0  0.3 0.06 0  0.31 0.06 0  0.32 0.06 0  0.33 0.06 0  0.34 0.06 0  0.35 0.06 0  0.36 0.06 0  0.37 0.06 0  0.38 0.06 0  0.39 0.06 0  0.4 0.06 0  0.41 0.06 0  0.42 0.06 0  0.43 0.06 0  0.44 0.06 0  0.45 0.06 0  0.46 0.06 0  0.47 0.06 0  0.48 0.06 0  0.49 0.06 0  0.5 0.06 0  0.51 0.06 0  0.52 0.06 0  0.53 0.06 0  0.54 0.06 0  0.55 0.06 0  0.5600000000000001 0.06 0  0.57 0.06 0  0.58 0.06 0  0.59 0.06 0  0.6 0.06 0  0.61 0.06 0  0.62 0.06 0  0.63 0.06 0  0.64 0.06 0  0.65 0.06 0  0.66 0.06 0  0.67 0.06 0  0.68 0.06 0  0.6899999999999999 0.06 0  0.7 0.06 0  0.71 0.06 0  0.72 0.06 0  0.73 0.06 0  0.74 0.06 0  0.75 0.06 0  0.76 0.06 0  0.77 0.06 0  0.78 0.06 0  0.79 0.06 0  0.8 0.06 0  0.8100000000000001 0.06 0  0.82 0.06 0  0.83 0.06 0  0.84 0.06 0  0.85 0.06 0  0.86 0.06 0  0.87 0.06 0  0.88 0.06 0  0.89 0.06 0  0.9 0.06 0  0.91 0.06 0  0.92 0.06 0  0.93 0.06 0  0.9399999999999999 0.06 0  0.95 0.06 0  0.96 0.06 0  0.97 0.06 0  0.98 0.06 0  0.99 0.06 0  1 0.06 0  0 0.07000000000000001 0  0.01 0.07000000000000001 0  0.02 0.07000000000000001 0  0.03 0.07000000000000001 0  0.04 0.07000000000000001 0  0.05 0.07000000000000001 0  0.06 0.07000000000000001 0  0.07000000000000001 0.07000000000000001 0  0.08 0.07000000000000001 0  0.09 0.07000000000000001 0  0.1 0.07000000000000001 0  0.11 0.07000000000000001 0  0.12 0.07000000000000001 0  0.13 0.07000000000000001 0  0.14 0.07000000000000001 0  0.15 0.07000000000000001 0  0.16 0.07000000000000001 0  0.17 0.0700
[...]
<PointData  Scalars="u"> 
<DataArray  type="Float64"  Name="u"  format="ascii">0.0000000000000000e+00  0.0000000000000000e+00  0.0000000000000000e+00  0.0000000000000000e+00  0.0000000000000000e+00  0.0000000000000000e+00  0.0000000000000000e+00  0.0000000000000000e+00  0.0000000000000000e+00  0.0000000000000000e+00  0.0000000000000000e+00  0.0000000000000000e+00  0.0000000000000000e+00  0.0000000000000000e+00  0.0000000000000000e+00  0.0000000000000000e+00  0.0000000000000000e+00  0.0000000000000000e+00  0.0000000000000000e+00  0.0000000000000000e+00  0.0000000000000000e+00  0.0000000000000000e+00  0.0000000000000000e+00  0.0000000000000000e+00  0.0000000000000000e+00  0.0000000000000000e+00  0.0000000000000000e+00  0.0000000000000000e+00  0.0000000000000000e+00  0.0000000000000000e+00  0.0000000000000000e+00  0.0000000000000000e+00  0.0000000000000000e+00  0.0000000000000000e+00  0.0000000000000000e+00  0.0000000000000000e+00  0.0000000000000000e+00  0.0000000000000000e+00  0.0000000000000000e+00  0.0000000000000000e+00  0.0000000000000000e+00  0.0000000000000000e+00  0.0000000000000000e+00  0.0000000000000000e+00  0.0000000000000000e+00  0.0000000000000000e+00  0.0000000000000000e+00  0.0000000000000000e+00  0.0000000000000000e+00  0.0000000000000000e+00  0.0000000000000000e+00  0.0000000000000000e+00  0.0000000000000000e+00  0.0000000000000000e+00  0.0000000000000000e+00  0.0000000000000000e+00  0.0000000000000000e+00  0.0000000000000000e+00  0.0000000000000000e+00  0.0000000000000000e+00  0.0000000000000000e+00  0.0000000000000000e+00  0.0000000000000000e+00  0.0000000000000000e+00  0.0000000000000000e+00  0.0000000000000000e+00  0.0000000000000000e+00  0.0000000000000000e+00  0.0000000000000000e+00  0.0000000000000000e+00  0.0000000000000000e+00  0.0000000000000000e+00  0.0000000000000000e+00  0.0000000000000000e+00  0.0000000000000000e+00  0.0000000000000000e+00  0.0000000000000000e+00  0.0000000000000000e+00  0.0000000000000000e+00  0.0000000000000000e+00  0.0000000000000000e+00  0.0000000000000000e+00  0.0000000000000000e+00  0.0000000000000000e+00  0.0000000000000000e+00  0.0000000000000000e+00  0.0000000000000000e+00  0.0000000000000000e+00  0.0000000000000000e+00  0.0000000000000000e+00  0.0000000000000000e+00  0.0000000000000000e+00  0.0000000000000000e+00  0.0000000000000000e+00  0.0000000000000000e+00  0.0000000000000000e+00  0.0000000000000000e+00  0.0000000000000000e+00  0.0000000000000000e+00  0.0000000000000000e+00  0.0000000000000000e+00  0.0000000000000000e+00  8.8333085727220481e-06  1.5998587013621459e-05  2.2153314269695045e-05  2.7605987412347349e-05  3.2524888777820237e-05  3.7013218986460387e-05  4.1139933679156695e-05  4.4954054543937872e-05  4.8492053521886890e-05  5.1782008626342682e-05  5.4846111387845938e-05  5.7702266292953709e-05  6.0365157828488210e-05  6.2846988868934777e-05  6.5158007276574487e-05  6.7306890976167935e-05  6.9301035454074117e-05  7.1146772115763835e-05  7.2849536434338200e-05  7.4413998808680113e-05  7.5844167129111319e-05  7.7143467422224925e-05  7.8314807141621060e-05  7.9360624398265160e-05  8.0282925500871837e-05  8.1083312484662789e-05  8.1763001766227690e-05  8.2322834616527259e-05  8.2763279750380190e-05  8.3084427952906720e-05  8.3285978266558024e-05  8.3367214807827873e-05  8.3326972721568977e-05  8.3163591044922697e-05  8.2874849240892310e-05  8.2457882715383996e-05  8.1909070494475279e-05  8.1223884979342620e-05  8.0396688562963273e-05  7.9420453523800026e-05  7.8286367431945359e-05  7.6983261196863419e-05  7.5496750102418408e-05  7.3807885620353996e-05  7.1890919379944223e-05  6.9709328550101072e-05  6.7208111197111968e-05  6.4297183008939178e-05  6.0810922020547465e-05  5.6395756367044698e-05  5.5051501783702763e-05  5.3946485889522995e-05  5.2974568249685010e-05  5.2085947254291275e-05  5.1253436096793014e-05  5.0460325694361713e-05  4.9695403047368820e-05  4.8950639014083365e-05  4.8219994900065869e-05  4.7498750409554345e-05  4.6783097709843332e-05  4.6069881991374428e-05  4.5356427824956530e-05  4.4640418377767848e-05  4.3919808577704091e-05  4.3192760839153496e-05  4.2457596207221881e-05  4.1712756276119925e-05  4.0956772762898280e-05  4.0188242577781249e-05  3.9405806851642126e-05  3.8608132787962158e-05  3.7793897476401412e-05  3.6961772983324220e-05  3.6110412148963217e-05  3.5238434588139581e-05  3.4344412421226776e-05  3.3426855258957088e-05  3.2484193929291743e-05  3.1514762363647380e-05  3.0516776945727210e-05  2.9488312455860704e-05  2.8427273495871289e-05  2.7331359920508527e-05  2.6198024278172502e-05  2.5024418490301179e-05  2.3807325834204603e-05  2.2543072499320303e-05  2.1227410144056482e-05  1.9855356231780025e-05  1.8420971035943639e-05  1.6917036226101065e-05  1.5334573889446330e-05  1.3662093283061557e-05  1.1884343187280730e-05  9.9800958390450971e-06  7.9178528990843462e-06  5.6465937713210871e-06  3.0732350886131687e-06  0.0000000000000000e+00  0.0000000000000000e+00  1.6001313943933395e-05  2.9674391878735405e-05  4.1675349319478030e-05  5.2412413268540773e-05  6.2147015379139829e-05  7.1054720155531306e-05  7.9259127852895149e-05  8.6850897641374599e-05  9.3898817583933648e-05  1.0045653626230454e-04  1.0656683729875404e-04  1.1226446262214733e-04  1.1757804281873095e-04  1.2253145703734305e-04  1.2714481592786191e-04  1.3143518784068978e-04  1.3541714539103136e-04  1.3910318324130967e-04  1.4250404147957553e-04  1.4562895833793759e-04  1.4848586895220686e-04  1.5108156208483401e-04  1.5342180341266083e-04  1.5551143161723435e-04  1.5735443178722597e-04  1.5895398933821832e-04  1.6031252663038735e-04  1.6143172361616771e-04  1.6231252309875367e-04  1.6295512046135536e-04  1.6335893697216411e-04  1.6352257490985113e-04  1.6344375170019196e-04  1.6311920888389611e-04  1.6254458986992920e-04  1.6171427779283504e-04  1.6062118094984108e-04  1.5925644752659863e-04  1.5760908241537708e-04  1.5566542476695813e-04  1.5340842167378457e-04  1.5081659391975652e-04  1.4786252025912293e-04  1.4451053966572003e-04  1.4071313001598866e-04  1.3640495029001483e-04  1.3149259989607423e-04  1.2583636548476392e-04  1.1921741537287269e-04  1.1128336640684490e-04  1.0886376487824337e-04  1.0675987352470417e-04  1.0486583985492581e-04  1.0311578467068702e-04  1.0146747143851908e-04  9.9892463633285055e-05  9.8370647481030145e-05  9.6887158108898731e-05  9.5430590176625777e-05  9.3991909028308195e-05  9.2563758438444536e-05  9.1140002430697839e-05  8.9715410930683867e-05  8.8285437108410718e-05  8.6846055093895051e-05  8.5393638571687960e-05  8.3924867713614114e-05  8.2436656134359540e-05  8.0926092197691895e-05  7.9390390696584565e-05  7.7826852040825084e-05  7.6232826823805058e-05  7.4605684134319272e-05  7.2942782307932241e-05  7.1241441024389051e-05  6.9498913782368313e-05  6.7712359837810378e-05  6.5878814685309796e-05  6.3995158094562506e-05  6.2058078579570566e-05  6.0064032963400760e-05  5.8009199381844327e-05  5.5889421607115904e-05  5.3700141907990307e-05  5.1436318701880303e-05  4.9092323848827607e-05  4.6661812347196922e-05  4.4137554019020101e-05  4.1511211845125605e-05  3.8773043747119970e-05  3.5911491685893466e-05  3.2912599979014285e-05  2.9759166048622718e-05  2.6429456055519142e-05  2.2895183627016255e-05  1.9118187269815309e-05  1.5044721985971198e-05  1.0595287097586830e-05  5.6463465831315871e-06  0.0000000000000000e+00  0.0000000000000000e+00  2.2164221990942772e-05  4.1688983904575365e-05  5.9127944527607587e-05  7.4887967629864557e-05  8.9262705981333642e-05  1.0246618507029654e-04  1.1465762660218458e-04  1.2595825725139842e-04  1.3646244957683511e-04  1.4624514820685443e-04  1.5536690558938510e-04  1.6387737074481727e-04  1.7181776045361192e-04  1.7922264720051124e-04  1.8612127822350703e-04  1.9253856573436459e-04  1.9849584169471843e-04  2.0401144064553461e-04  2.0910115457138336e-04  2.1377859077795439e-04  2.1805545492361108e-04  2.2194177521891006e-04  2.2544607947362050e-04  2.2857553353745213e-04  2.3133604735924598e-04  2.3373235311726373e-04  2.3576805846760226e-04  2.3744567678566936e-04  2.3876663523377765e-04  2.3973126048826353e-04  2.4033874091755860e-04  2.4058706282588724e-04  2.4047291695211841e-04  2.3999156958720723e-04  2.3913669022876006e-04  2.3790012430285250e-04  2.3627159465212209e-04  2.3423830842850033e-04  2.3178443547165498e-04  2.2889040812153747e-04  2.2553196724314496e-04  2.2167883921592177e-04  2.1729286401526339e-04  2.1232528943408108e-04  2.0671277739494232e-04  2.0037140936456197e-04  1.9318763927907284e-04  1.8500493032783623e-04  1.7560567424600116e-04  1.6469311004478840e-04  1.6136031779772172e-04  1.5836340347612449e-04  1.5561313297462697e-04  1.5304388013501194e-04  1.5060820135331119e-04  1.4827140991922923e-04  1.4600756513456786e-04  1.4379675576385559e-04  1.4162329866923031e-04  1.3947453708860807e-04  1.3734002458492875e-04  1.3521095836228846e-04  1.3307977635867031e-04  1.3093986403129614e-04  1.2878533611777735e-04  1.2661087064008914e-04  1.2441157994118709e-04  1.2218290835001221e-04  1.1992054919692518e-04  1.1762037597004006e-04  1.1527838379126860e-04  1.1289063833211371e-04  1.1045322992913829e-04  1.0796223108969647e-04  1.0541365585829239e-04  1.0280341967913423e-04  1.0012729846233654e-04  9.7380885549909219e-05  9.4559545184077937e-05  9.1658360896671552e-05  8.8672076946460983e-05  8.5595030500999875e-05  8.2421071642757674e-05  7.9143467402456445e-05  7.5754784772530821e-05  7.2246745855932001e-05  6.8610045686735355e-05  6.4834119384437608e-05  6.0906839470305806e-05  5.6814115225680792e-05  5.2539351981495965e-05  4.8062705955439873e-05  4.3360034270511137e-05  3.8401381263375987e-05  3.3148747995449862e-05  2.7552747627228680e-05  2.1547560677398310e-05  1.5043486049923442e-05  7.9168641463263496e-06  0.0000000000000000e+00  0.0000000000000000e+00  2.7633256781929000e-05  5.2456043887682361e-05  7.4926143923179087e-05  9.5415473408642915e-05  1.1421632251270034e-04  1.3155635420880339e-04  1.4761360290081494e-04  1.6252872185186615e-04  1.7641424193182091e-04  1.8936136806555959e-04  2.0144493277378142e-04  2.1272702098079155e-04  2.2325964771705494e-04  2.3308675975424980e-04  2.4224575069795712e-04  2.5076862184520994e-04  2.5868288167460983e-04  2.6601224974139389e-04  2.7277721204913588e-04  2.7899546194555243e-04  2.8468225141204003e-04  2.8985067106024125e-04  2.9451187239212595e-04  2.9867524236637440e-04  3.0234853766170913e-04  3.0553798397065521e-04  3.0824834400375561e-04  3.1048295649179647e-04  3.1224374722909091e-04  3.1353121200702969e-04  3.1434437005058646e-04  3.1468068519068762e-04  3.1453595036185422e-04  3.1390412895072108e-04  3.1277714382171797e-04  3.1114460120435964e-04  3.0899343159396139e-04  3.0630742273029236e-04  3.0306660958787194e-04  2.9924647167105858e-04  2.9481686662800280e-04  2.8974059835218900e-04  2.8397147381859465e-04  2.7745164332706540e-04  2.7010794743180451e-04  2.6184693716088436e-04  2.5254828419448566e-04  2.4205670896817379e-04  2.3017390790517416e-04  2.1665519673919761e-04  2.1252099279173064e-04  2.0872028960744495e-04  2.0517940843244560e-04  2.0183840154142248e-04  1.9865004392048441e-04  1.9557740955575303e-04  1.9259144737415632e-04  1.8966900114272546e-04  1.8679131164783174e-04  1.8394291607196501e-04  1.8111084445037389e-04  1.7828403007485698e-04  1.7545287211041268e-04  1.7260890654032624e-04  1.6974455470582898e-04  1.6685292792970418e-04  1.6392767306103276e-04  1.6096284812757713e-04  1.5795282026995642e-04  1.5489218019538184e-04  1.5177566882209546e-04  1.4859811278424294e-04  1.4535436616042367e-04  1.4203925626342294e-04  1.3864753163994972e-04  1.3517381061353971e-04  1.3161252878249235e-04  1.2795788386791264e-04  1.2420377619516845e-04  1.2034374287657663e-04  1.1637088342477174e-04  1.1227777403293648e-04  1.0805636706045837e-04  1.0369787128654700e-04  9.9192607129854564e-05  9.4529829115634211e-05  8.9697505159374839e-05  8.4682038361689178e-05  7.9467911425979248e-05  7.4037225703801443e-05  6.8369095058969697e-05  6.2438837590738088e-05  5.6216883814606047e-05  4.9667286732023728e-05  4.2745679464178516e-05  3.5396494566251211e-05  2.7549287046469903e-05  1.9114232278382276e-05  9.9776239522503639e-06  0.0000000000000000e+00  0.0000000000000000e+00  3.2579427915757523e-05  6.2242457607712673e-05  8.9371780535450138e-05  1.1429812623549437e-04  1.3729742311868794e-04  1.5859597301806858e-04  1.7837837560707231e-04  1.9679545199009706e-04  2.1397109489968959e-04  2.3000781601644813e-04  2.4499110312605616e-04  2.5899279935417946e-04  2.7207371634623343e-04  2.8428566006814246e-04  2.9567300963552836e-04  3.0627395594057499e-04  3.1612148008378370e-04  3.2524413126296207e-04  3.3366664860488040e-04  3.4141046020974618e-04  3.4849408438542196e-04  3.5493345188455564e-04  3.6074216333493417e-04  3.6593169254087697e-04  3.7051154361722780e-04  3.7448936776655894e-04  3.7787104375163529e-04  3.8066072461533687e-04  3.8286085185042630e-04  3.8447213692684455e-04  3.8549350875373667e-04  3.8592202419108937e-04  3.8575273702055640e-04  3.8497851869877161e-04  3.8358982156969795e-04  3.8157437176557343e-04  3.7891677445573818e-04  3.7559800797750255e-04  3.7159477514514869e-04  3.6687866901348893e-04  3.6141509591228524e-04  3.5516188041290349e-04  3.4806745624652767e-04  3.4006852929044812e-04  3.3108709851099269e-04  3.2102677431935210e-04  3.0976851803647817e-04  2.9716638011186583e-04  2.8304471833399085e-04  2.6719973050695145e-04  2.6234816702255798e-04  2.5781735372947895e-04  2.5354580960628765e-04  2.4948027367774784e-04  2.4557616323145066e-04  2.4179673700914210e-04  2.3811181366357884e-04  2.3449648978505783e-04  2.3093003070740601e-04  2.2739497110104624e-04  2.2387640706974458e-04  2.2036144537635274e-04  2.1683877546779714e-04  2.1329833531376707e-04  2.0973104823550782e-04  2.0612861331186579e-04  2.0248333624566249e-04  1.9878799082930718e-04  1.9503570355994146e-04  1.9121985571943524e-04  1.8733399851748829e-04  1.8337177782233870e-04  1.7932686566489035e-04  1.7519289616362176e-04  1.7096340382454368e-04  1.6663176235258244e-04  1.6219112218618026e-04  1.5763434494408046e-04  1.5295393285210638e-04  1.4814195098969464e-04  1.4318993984311292e-04  1.3808881514551575e-04  1.3282875127959234e-04  1.2739904355341851e-04  1.2178794334470608e-04  1.1598245831737532e-04  1.0996810747344044e-04  1.0372861747696494e-04  9.7245542168120411e-05  9.0497781104575996e-05  8.3460964959843235e-05  7.6106665533936643e-05  6.8401376665151256e-05  6.0305202385934230e-05  5.1770188562989239e-05  4.2738264127127704e-05  3.3138860663847781e-05  2.2886532064885362e-05  1.1879399384292837e-05  0.0000000000000000e+00  0.0000000000000000e+00  3.7108663940055127e-05  7.1229244758627312e-05  1.0268706104208111e-04  1.3177449454586314e-04  1.5874593737515508e-04  1.8381840580437755e-04  2.0717514118597519e-04  2.2897028226842686e-04  2.4933353632705890e-04  2.6837436464115396e-04  2.8618553102648206e-04  3.0284602363030350e-04  3.1842342491222332e-04  3.3297582120322489e-04  3.4655333850210535e-04  3.5919937886444414e-04  3.7095161812365459e-04  3.8184281328845749e-04  3.9190145756434400e-04  4.0115231256979654e-04  4.0961684070201312e-04  4.1731355542429189e-04  4.2425830318884491e-04  4.3046448751163819e-04  4.3594324316643290e-04  4.4070356639338399e-04  4.4475240528755620e-04  4.4809471303415620e-04  4.5073346529709961e-04  4.5266964176285217e-04  4.5390217051309313e-04  4.5442783246604334e-04  4.5424112149717682e-04  4.5333405392077828e-04  4.5169591865939558e-04  4.4931295649916421e-04  4.4616795315258233e-04  4.4223972624549775e-04  4.3750248066839765e-04  4.3192499999212972e-04  4.2546963426141253e-04  4.1809103780727938e-04  4.0973460813083099e-04  4.0033458574387329e-04  3.8981180966903288e-04  3.7807121023572011e-04  3.6499930018687662e-04  3.5046224177548717e-04  3.3430552147863872e-04  3.1635667525360000e-04  3.1085459106207098e-04  3.0565514868162517e-04  3.0070620258547837e-04  2.9596072033183070e-04  2.9137759831842844e-04  2.8692156158578578e-04  2.8256258048595860e-04  2.7827511362652152e-04  2.7403735029568800e-04  2.6983053055506942e-04  2.6563836735120556e-04  2.6144656889301237e-04  2.5724244907065607e-04  2.5301461101143722e-04  2.4875268961056969e-04  2.4444714083658866e-04  2.4008906778044407e-04  2.3567007538404761e-04  2.3118214742106664e-04  2.2661754060492959e-04  2.2196869170608370e-04  2.1722813432273336e-04  2.1238842251317743e-04  2.0744205890163022e-04  2.0238142514202099e-04  1.9719871278606622e-04  1.9188585266556598e-04  1.8643444087012258e-04  1.8083565927948180e-04  1.7508018838698284e-04  1.6915810981246948e-04  1.6305879542642099e-04  1.5677077935897677e-04  1.5028160830282881e-04  1.4357766437817586e-04  1.3664395333572057e-04  1.2946384894004678e-04  1.2201878190460982e-04  1.1428785866496140e-04  1.0624739158653894e-04  9.7870318141890595e-05  8.9125482920013994e-05  7.9976754926128129e-05  7.0381957583572633e-05  6.0291608274716501e-05  4.9647512715422616e-05  3.8381359416908159e-05  2.6413635933018555e-05  1.3653441520035613e-05  0.0000000000000000e+00  0.0000000000000000e+00  4.1292649752502348e-05  7.9545463111326995e-05  1.1503939099505051e-04  1.4803352019738858e-04  1.7876009269835843e-04  2.0742323830497811e-04  2.3420016773069069e-04  2.5924366623724320e-04  2.8268507016563217e-04  3.0463724186129338e-04  3.2519729937508158e-04  3.4444900589499595e-04  3.6246480513579815e-04  3.7930752799709527e-04  3.9503181097189034e-04  4.0968526955810855e-04  4.2330946692459965e-04  4.3594071286953592e-04  4.4761072246090846e-04  4.5834715846974943e-04  4.6817407709520860e-04  4.7711229258842053e-04  4.8517967315118196e-04  4.9239137781706475e-04  4.9876004181014844e-04  5.0429591601965453e-04  5.0900696463771649e-04  5.1289892360329879e-04  5.1597532120763005e-04  5.1823746098103834e-04  5.1968436573640684e-04  5.2031268032948078e-04  5.2011652924799617e-04  5.1908732349443577e-04  5.1721350931460859e-04  5.1448024908577240e-04  5.1086902207659614e-04  5.0635712985017513e-04  5.0091708795748160e-04  4.9451588269188666e-04  4.8711407000062219e-04  4.7866469509063729e-04  4.6911201939231045e-04  4.5839006255184796e-04  4.4642101085221221e-04  4.3311362343428569e-04  4.1836189736648723e-04  4.0204443199123424e-04  3.8402511721814364e-04  3.6415582049873695e-04  3.5805837329050064e-04  3.5224244734947247e-04  3.4666313172217005e-04  3.4127880674566824e-04  3.3605194812464680e-04  3.3094933052961418e-04  3.2594183306794861e-04  3.2100403393938169e-04  3.1611372629375525e-04  3.1125143347233785e-04  3.0639996288699584e-04  3.0154401377383526e-04  2.9666984091037812e-04  2.9176497005075594e-04  2.8681795835874520e-04  2.8181819264347537e-04  2.7675571865547758e-04  2.7162109550537265e-04  2.6640527013534800e-04  2.6109946757313282e-04  2.5569509337918352e-04  2.5018364524933363e-04  2.4455663116345591e-04  2.3880549178770076e-04  2.3292152505584388e-04  2.2689581098409546e-04  2.2071913481989486e-04  2.1438190659136218e-04  2.0787407500871553e-04  2.0118503346628548e-04  1.9430351559336125e-04  1.8721747738872211e-04  1.7991396242706491e-04  1.7237894592074410e-04  1.6459715252944800e-04  1.5655184170728441e-04  1.4822455304641611e-04  1.3959480253646618e-04  1.3063971900057649e-04  1.2133360843472781e-04  1.1164743310116630e-04  1.0154819307810065e-04  9.0998202535774744e-05  7.9954264747511634e-05  6.8366774236881518e-05  5.6178819042938116e-05  4.3325428355343657e-05  2.9733210730245080e-05  1.5320730762831055e-05  0.0000000000000000e+00  0.0000000000000000e+00  4.5183138625293899e-05  8.7287233605794315e-05  1.2655818629607208e-04  1.6322676921694891e-04  1.9750434158257845e-04  2.2958095365315252e-04  2.5962529186123292e-04  2.8778581145088992e-04  3.1419250290359982e-04  3.3895889992997271e-04  3.6218408538422154e-04  3.8395456210546720e-04  4.0434592840554468e-04  4.2342434134413399e-04  4.4124777449691845e-04  4.5786708813816662e-04  4.7332693381376583e-04  4.8766651547084498e-04  5.0092022760667133e-04  5.1311818841975085e-04  5.2428668328731790e-04  5