<?xml version="1.0"?>
<VTKFile type="UnstructuredGrid"  version="0.1"  >
<UnstructuredGrid>
<Piece  NumberOfPoints="10201" NumberOfCells="20000">
<Points>
<DataArray  type="Float64"  NumberOfComponents="3"  format="ascii">0 0 0  0.01 0 0  0.02 0 0  0.03 0 0  0.04 0 0  0.05 0 0  0.06 0 0  0.07000000000000001 0 0  0.08 0 0  0.09 0 0  0.1 0 0  0.11 0 0  0.12 0 0  0.13 0 0  0.14 0 0  0.15 0 0  0.16 0 0  0.17 0 0  0.18 0 0  0.19 0 0  0.2 0 0  0.21 0 0  0.22 0 0  0.23 0 0  0.24 0 0  0.25 0 0  0.26 0 0  0.27 0 0  0.28 0 0  0.29 0 0  0.3 0 0  0.31 0 0  0.32 0 0  0.33 0 0  0.34 0 0  0.35 0 0  0.36 0 0  0.37 0 0  0.38 0 0  0.39 0 0  0.4 0 0  0.41 0 0  0.42 0 0  0.43 0 0  0.44 0 0  0.45 0 0  0.46 0 0  0.47 0 0  0.48 0 0  0.49 0 0  0.5 0 0  0.51 0 0  0.52 0 0  0.53 0 0  0.54 0 0  0.55 0 0  0.5600000000000001 0 0  0.57 0 0  0.58 0 0  0.59 0 0  0.6 0 0  0.61 0 0  0.62 0 0  0.63 0 0  0.64 0 0  0.65 0 0  0.66 0 0  0.67 0 0  0.68 0 0  0.6899999999999999 0 0  0.7 0 0  0.71 0 0  0.72 0 0  0.73 0 0  0.74 0 0  0.75 0 0  0.76 0 0  0.77 0 0  0.78 0 0  0.79 0 0  0.8 0 0  0.8100000000000001 0 0  0.82 0 0  0.83 0 0  0.84 0 0  0.85 0 0  0.86 0 0  0.87 0 0  0.88 0 0  0.89 0 0  0.9 0 0  0.91 0 0  0.92 0 0  0.93 0 0  0.9399999999999999 0 0  0.95 0 0  0.96 0 0  0.97 0 0  0.98 0 0  0.99 0 0  1 0 0  0 0.01 0  0.01 0.01 0  0.02 0.01 0  0.03 0.01 0  0.04 0.01 0  0.05 0.01 0  0.06 0.01 0  0.07000000000000001 0.01 0  0.08 0.01 0  0.09 0.01 0  0.1 0.01 0  0.11 0.01 0  0.12 0.01 0  0.13 0.01 0  0.14 0.01 0  0.15 0.01 0  0.16 0.01 0  0.17 0.01 0  0.18 0.01 0  0.19 0.01 0  0.2 0.01 0  0.21 0.01 0  0.22 0.01 0  0.23 0.01 0  0.24 0.01 0  0.25 0.01 0  0.26 0.01 0  0.27 0.01 0  0.28 0.01 0  0.29 0.01 0  0.3 0.01 0  0.31 0.01 0  0.32 0.01 0  0.33 0.01 0  0.34 0.01 0  0.35 0.01 0  0.36 0.01 0  0.37 0.01 0  0.38 0.01 0  0.39 0.01 0  0.4 0.01 0  0.41 0.01 0  0.42 0.01 0  0.43 0.01 0  0.44 0.01 0  0.45 0.01 0  0.46 0.01 0  0.47 0.01 0  0.48 0.01 0  0.49 0.01 0  0.5 0.01 0  0.51 0.01 0  0.52 0.01 0  0.53 0.01 0  0.54 0.01 0  0.55 0.01 0  0.5600000000000001 0.01 0  0.57 0.01 0  0.58 0.01 0  0.59 0.01 0  0.6 0.01 0  0.61 0.01 0  0.62 0.01 0  0.63 0.01 0  0.64 0.01 0  0.65 0.01 0  0.66 0.01 0  0.67 0.01 0  0.68 0.01 0  0.6899999999999999 0.01 0  0.7 0.01 0  0.71 0.01 0  0.72 0.01 0  0.73 0.01 0  0.74 0.01 0  0.75 0.01 0  0.76 0.01 0  0.77 0.01 0  0.78 0.01 0  0.79 0.01 0  0.8 0.01 0  0.8100000000000001 0.01 0  0.82 0.01 0  0.83 0.01 0  0.84 0.01 0  0.85 0.01 0  0.86 0.01 0  0.87 0.01 0  0.88 0.01 0  0.89 0.01 0  0.9 0.01 0  0.91 0.01 0  0.92 0.01 0  0.93 0.01 0  0.9399999999999999 0.01 0  0.95 0.01 0  0.96 0.01 0  0.97 0.01 0  0.98 0.01 0  0.99 0.01 0  1 0.01 0  0 0.02 0  0.01 0.02 0  0.02 0.02 0  0.03 0.02 0  0.04 0.02 0  0.05 0.02 0  0.06 0.02 0  0.07000000000000001 0.02 0  0.08 0.02 0  0.09 0.02 0  0.1 0.02 0  0.11 0.02 0  0.12 0.02 0  0.13 0.02 0  0.14 0.02 0  0.15 0.02 0  0.16 0.02 0  0.17 0.02 0  0.18 0.02 0  0.19 0.02 0  0.2 0.02 0  0.21 0.02 0  0.22 0.02 0  0.23 0.02 0  0.24 0.02 0  0.25 0.02 0  0.26 0.02 0  0.27 0.02 0  0.28 0.02 0  0.29 0.02 0  0.3 0.02 0  0.31 0.02 0  0.32 0.02 0  0.33 0.02 0  0.34 0.02 0  0.35 0.02 0  0.36 0.02 0  0.37 0.02 0  0.38 0.02 0  0.39 0.02 0  0.4 0.02 0  0.41 0.02 0  0.42 0.02 0  0.43 0.02 0  0.44 0.02 0  0.45 0.02 0  0.46 0.02 0  0.47 0.02 0  0.48 0.02 0  0.49 0.02 0  0.5 0.02 0  0.51 0.02 0  0.52 0.02 0  0.53 0.02 0  0.54 0.02 0  0.55 0.02 0  0.5600000000000001 0.02 0  0.57 0.02 0  0.58 0.02 0  0.59 0.02 0  0.6 0.02 0  0.61 0.02 0  0.62 0.02 0  0.63 0.02 0  0.64 0.02 0  0.65 0.02 0  0.66 0.02 0  0.67 0.02 0  0.68 0.02 0  0.6899999999999999 0.02 0  0.7 0.02 0  0.71 0.02 0  0.72 0.02 0  0.73 0.02 0  0.74 0.02 0  0.75 0.02 0  0.76 0.02 0  0.77 0.02 0  0.78 0.02 0  0.79 0.02 0  0.8 0.02 0  0.8100000000000001 0.02 0  0.82 0.02 0  0.83 0.02 0  0.84 0.02 0  0.85 0.02 0  0.86 0.02 0  0.87 0.02 0  0.88 0.02 0  0.89 0.02 0  0.9 0.02 0  0.91 0.02 0  0.92 0.02 0  0.93 0.02 0  0.9399999999999999 0.02 0  0.95 0.02 0  0.96 0.02 0  0.97 0.02 0  0.98 0.02 0  0.99 0.02 0  1 0.02 0  0 0.03 0  0.01 0.03 0  0.02 0.03 0  0.03 0.03 0  0.04 0.03 0  0.05 0.03 0  0.06 0.03 0  0.07000000000000001 0.03 0  0.08 0.03 0  0.09 0.03 0  0.1 0.03 0  0.11 0.03 0  0.12 0.03 0  0.13 0.03 0  0.14 0.03 0  0.15 0.03 0  0.16 0.03 0  0.17 0.03 0  0.18 0.03 0  0.19 0.03 0  0.2 0.03 0  0.21 0.03 0  0.22 0.03 0  0.23 0.03 0  0.24 0.03 0  0.25 0.03 0  0.26 0.03 0  0.27 0.03 0  0.28 0.03 0  0.29 0.03 0  0.3 0.03 0  0.31 0.03 0  0.32 0.03 0  0.33 0.03 0  0.34 0.03 0  0.35 0.03 0  0.36 0.03 0  0.37 0.03 0  0.38 0.03 0  0.39 0.03 0  0.4 0.03 0  0.41 0.03 0  0.42 0.03 0  0.43 0.03 0  0.44 0.03 0  0.45 0.03 0  0.46 0.03 0  0.47 0.03 0  0.48 0.03 0  0.49 0.03 0  0.5 0.03 0  0.51 0.03 0  0.52 0.03 0  0.53 0.03 0  0.54 0.03 0  0.55 0.03 0  0.5600000000000001 0.03 0  0.57 0.03 0  0.58 0.03 0  0.59 0.03 0  0.6 0.03 0  0.61 0.03 0  0.62 0.03 0  0.63 0.03 0  0.64 0.03 0  0.65 0.03 0  0.66 0.03 0  0.67 0.03 0  0.68 0.03 0  0.6899999999999999 0.03 0  0.7 0.03 0  0.71 0.03 0  0.72 0.03 0  0.73 0.03 0  0.74 0.03 0  0.75 0.03 0  0.76 0.03 0  0.77 0.03 0  0.78 0.03 0  0.79 0.03 0  0.8 0.03 0  0.8100000000000001 0.03 0  0.82 0.03 0  0.83 0.03 0  0.84 0.03 0  0.85 0.03 0  0.86 0.03 0  0.87 0.03 0  0.88 0.03 0  0.89 0.03 0  0.9 0.03 0  0.91 0.03 0  0.92 0.03 0  0.93 0.03 0  0.9399999999999999 0.03 0  0.95 0.03 0  0.96 0.03 0  0.97 0.03 0  0.98 0.03 0  0.99 0.03 0  1 0.03 0  0 0.04 0  0.01 0.04 0  0.02 0.04 0  0.03 0.04 0  0.04 0.04 0  0.05 0.04 0  0.06 0.04 0  0.07000000000000001 0.04 0  0.08 0.04 0  0.09 0.04 0  0.1 0.04 0  0.11 0.04 0  0.12 0.04 0  0.13 0.04 0  0.14 0.04 0  0.15 0.04 0  0.16 0.04 0  0.17 0.04 0  0.18 0.04 0  0.19 0.04 0  0.2 0.04 0  0.21 0.04 0  0.22 0.04 0  0.23 0.04 0  0.24 0.04 0  0.25 0.04 0  0.26 0.04 0  0.27 0.04 0  0.28 0.04 0  0.29 0.04 0  0.3 0.04 0  0.31 0.04 0  0.32 0.04 0  0.33 0.04 0  0.34 0.04 0  0.35 0.04 0  0.36 0.04 0  0.37 0.04 0  0.38 0.04 0  0.39 0.04 0  0.4 0.04 0  0.41 0.04 0  0.42 0.04 0  0.43 0.04 0  0.44 0.04 0  0.45 0.04 0  0.46 0.04 0  0.47 0.04 0  0.48 0.04 0  0.49 0.04 0  0.5 0.04 0  0.51 0.04 0  0.52 0.04 0  0.53 0.04 0  0.54 0.04 0  0.55 0.04 0  0.5600000000000001 0.04 0  0.57 0.04 0  0.58 0.04 0  0.59 0.04 0  0.6 0.04 0  0.61 0.04 0  0.62 0.04 0  0.63 0.04 0  0.64 0.04 0  0.65 0.04 0  0.66 0.04 0  0.67 0.04 0  0.68 0.04 0  0.6899999999999999 0.04 0  0.7 0.04 0  0.71 0.04 0  0.72 0.04 0  0.73 0.04 0  0.74 0.04 0  0.75 0.04 0  0.76 0.04 0  0.77 0.04 0  0.78 0.04 0  0.79 0.04 0  0.8 0.04 0  0.8100000000000001 0.04 0  0.82 0.04 0  0.83 0.04 0  0.84 0.04 0  0.85 0.04 0  0.86 0.04 0  0.87 0.04 0  0.88 0.04 0  0.89 0.04 0  0.9 0.04 0  0.91 0.04 0  0.92 0.04 0  0.93 0.04 0  0.9399999999999999 0.04 0  0.95 0.04 0  0.96 0.04 0  0.97 0.04 0  0.98 0.04 0  0.99 0.04 0  1 0.04 0  0 0.05 0  0.01 0.05 0  0.02 0.05 0  0.03 0.05 0  0.04 0.05 0  0.05 0.05 0  0.06 0.05 0  0.07000000000000001 0.05 0  0.08 0.05 0  0.09 0.05 0  0.1 0.05 0  0.11 0.05 0  0.12 0.05 0  0.13 0.05 0  0.14 0.05 0  0.15 0.05 0  0.16 0.05 0  0.17 0.05 0  0.18 0.05 0  0.19 0.05 0  0.2 0.05 0  0.21 0.05 0  0.22 0.05 0  0.23 0.05 0  0.24 0.05 0  0.25 0.05 0  0.26 0.05 0  0.27 0.05 0  0.28 0.05 0  0.29 0.05 0  0.3 0.05 0  0.31 0.05 0  0.32 0.05 0  0.33 0.05 0  0.34 0.05 0  0.35 0.05 0  0.36 0.05 0  0.37 0.05 0  0.38 0.05 0  0.39 0.05 0  0.4 0.05 0  0.41 0.05 0  0.42 0.05 0  0.43 0.05 0  0.44 0.05 0  0.45 0.05 0  0.46 0.05 0  0.47 0.05 0  0.48 0.05 0  0.49 0.05 0  0.5 0.05 0  0.51 0.05 0  0.52 0.05 0  0.53 0.05 0  0.54 0.05 0  0.55 0.05 0  0.5600000000000001 0.05 0  0.57 0.05 0  0.58 0.05 0  0.59 0.05 0  0.6 0.05 0  0.61 0.05 0  0.62 0.05 0  0.63 0.05 0  0.64 0.05 0  0.65 0.05 0  0.66 0.05 0  0.67 0.05 0  0.68 0.05 0  0.6899999999999999 0.05 0  0.7 0.05 0  0.71 0.05 0  0.72 0.05 0  0.73 0.05 0  0.74 0.05 0  0.75 0.05 0  0.76 0.05 0  0.77 0.05 0  0.78 0.05 0  0.79 0.05 0  0.8 0.05 0  0.8100000000000001 0.05 0  0.82 0.05 0  0.83 0.05 0  0.84 0.05 0  0.85 0.05 0  0.86 0.05 0  0.87 0.05 0  0.88 0.05 0  0.89 0.05 0  0.9 0.05 0  0.91 0.05 0  0.92 0.05 0  0.93 0.05 0  0.9399999999999999 0.05 0  0.95 0.05 0  0.96 0.05 0  0.97 0.05 0  0.98 0.05 0  0.99 0.05 0  1 0.05 0  0 0.06 0  0.01 0.06 0  0.02 0.06 0  0.03 0.06 0  0.04 0.06 0  0.05 0.06 0  0.06 0.06 0  0.07000000000000001 0.06 0  0.08 0.06 0  0.09 0.06 0  0.1 0.06 0  0.11 0.06 0  0.12 0.06 0  0.13 0.06 0  0.14 0.06 0  0.15 0.06 0  0.16 0.06 0  0.17 0.06 0  0.18 0.06 0  0.19 0.06 0  0.2 0.06 0  0.21 0.06 0  0.22 0.06 0  0.23 0.06 0  0.24 0.06 0  0.25 0.06 0  0.26 0.06 0  0.27 0.06 0  0.28 0.06 0  0.29 0.06 0  0.3 0.06 0  0.31 0.06 0  0.32 0.06 0  0.33 0.06 0  0.34 0.06 0  0.35 0.06 0  0.36 0.06 0  0.37 0.06 0  0.38 0.06 0  0.39 0.06 0  0.4 0.06 0  0.41 0.06 0  0.42 0.06 0  0.43 0.06 0  0.44 0.06 0  0.45 0.06 0  0.46 0.06 0  0.47 0.06 0  0.48 0.06 0  0.49 0.06 0  0.5 0.06 0  0.51 0.06 0  0.52 0.06 0  0.53 0.06 0  0.54 0.06 0  0.55 0.06 0  0.5600000000000001 0.06 0  0.57 0.06 0  0.58 0.06 0  0.59 0.06 0  0.6 0.06 0  0.61 0.06 0  0.62 0.06 0  0.63 0.06 0  0.64 0.06 0  0.65 0.06 0  0.66 0.06 0  0.67 0.06 0  0.68 0.06 0  0.6899999999999999 0.06 0  0.7 0.06 0  0.71 0.06 0  0.72 0.06 0  0.73 0.06 0  0.74 0.06 0  0.75 0.06 0  0.76 0.06 0  0.77 0.06 0  0.78 0.06 0  0.79 0.06 0  0.8 0.06 0  0.8100000000000001 0.06 0  0.82 0.06 0  0.83 0.06 0  0.84 0.06 0  0.85 0.06 0  0.86 0.06 0  0.87 0.06 0  0.88 0.06 0  0.89 0.06 0  0.9 0.06 0  0.91 0.06 0  0.92 0.06 0  0.93 0.06 0  0.9399999999999999 0.06 0  0.95 0.06 0  0.96 0.06 0  0.97 0.06 0  0.98 0.06 0  0.99 0.06 0  1 0.06 0  0 0.07000000000000001 0  0.01 0.07000000000000001 0  0.02 0.07000000000000001 0  0.03 0.07000000000000001 0  0.04 0.07000000000000001 0  0.05 0.07000000000000001 0  0.06 0.07000000000000001 0  0.07000000000000001 0.07000000000000001 0  0.08 0.07000000000000001 0  0.09 0.07000000000000001 0  0.1 0.07000000000000001 0  0.11 0.07000000000000001 0  0.12 0.07000000000000001 0  0.13 0.07000000000000001 0  0.14 0.07000000000000001 0  0.15 0.07000000000000001 0  0.16 0.07000000000000001 0  0.17 0.0700
[...]
<PointData  Scalars="u"> 
<DataArray  type="Float64"  Name="u"  format="ascii">0.0000000000000000e+00  0.0000000000000000e+00  0.0000000000000000e+00  0.0000000000000000e+00  0.0000000000000000e+00  0.0000000000000000e+00  0.0000000000000000e+00  0.0000000000000000e+00  0.0000000000000000e+00  0.0000000000000000e+00  0.0000000000000000e+00  0.0000000000000000e+00  0.0000000000000000e+00  0.0000000000000000e+00  0.0000000000000000e+00  0.0000000000000000e+00  0.0000000000000000e+00  0.0000000000000000e+00  0.0000000000000000e+00  0.0000000000000000e+00  0.0000000000000000e+00  0.0000000000000000e+00  0.0000000000000000e+00  0.0000000000000000e+00  0.0000000000000000e+00  0.0000000000000000e+00  0.0000000000000000e+00  0.0000000000000000e+00  0.0000000000000000e+00  0.0000000000000000e+00  0.0000000000000000e+00  0.0000000000000000e+00  0.0000000000000000e+00  0.0000000000000000e+00  0.0000000000000000e+00  0.0000000000000000e+00  0.0000000000000000e+00  0.0000000000000000e+00  0.0000000000000000e+00  0.0000000000000000e+00  0.0000000000000000e+00  0.0000000000000000e+00  0.0000000000000000e+00  0.0000000000000000e+00  0.0000000000000000e+00  0.0000000000000000e+00  0.0000000000000000e+00  0.0000000000000000e+00  0.0000000000000000e+00  0.0000000000000000e+00  0.0000000000000000e+00  0.0000000000000000e+00  0.0000000000000000e+00  0.0000000000000000e+00  0.0000000000000000e+00  0.0000000000000000e+00  0.0000000000000000e+00  0.0000000000000000e+00  0.0000000000000000e+00  0.0000000000000000e+00  0.0000000000000000e+00  0.0000000000000000e+00  0.0000000000000000e+00  0.0000000000000000e+00  0.0000000000000000e+00  0.0000000000000000e+00  0.0000000000000000e+00  0.0000000000000000e+00  0.0000000000000000e+00  0.0000000000000000e+00  0.0000000000000000e+00  0.0000000000000000e+00  0.0000000000000000e+00  0.0000000000000000e+00  0.0000000000000000e+00  0.0000000000000000e+00  0.0000000000000000e+00  0.0000000000000000e+00  0.0000000000000000e+00  0.0000000000000000e+00  0.0000000000000000e+00  0.0000000000000000e+00  0.0000000000000000e+00  0.0000000000000000e+00  0.0000000000000000e+00  0.0000000000000000e+00  0.0000000000000000e+00  0.0000000000000000e+00  0.0000000000000000e+00  0.0000000000000000e+00  0.0000000000000000e+00  0.0000000000000000e+00  0.0000000000000000e+00  0.0000000000000000e+00  0.0000000000000000e+00  0.0000000000000000e+00  0.0000000000000000e+00  0.0000000000000000e+00  0.0000000000000000e+00  0.0000000000000000e+00  0.0000000000000000e+00  0.0000000000000000e+00  2.5840939567225837e-05  4.6687169857005396e-05  6.4520511468444812e-05  8.0275844880215377e-05  9.4467415190348778e-05  1.0741423517092661e-04  1.1933260037909086e-04  1.3037902827072343e-04  1.4067241821367991e-04  1.5030652793562147e-04  1.5935750668303618e-04  1.6788870644436927e-04  1.7595389833405156e-04  1.8359950563163831e-04  1.9086620439171244e-04  1.9779010275128804e-04  2.0440363117072056e-04  2.1073622935466690e-04  2.1681488717041625e-04  2.2266457893440765e-04  2.2830861879684949e-04  2.3376895722993190e-04  2.3906643340636702e-04  2.4422099468599678e-04  2.4925189197845944e-04  2.5417785808620486e-04  2.5901727504530717e-04  2.6378833584427160e-04  2.6850920564400378e-04  2.7319818772181742e-04  2.7787389983758507e-04  2.8255546763630428e-04  2.8726274318388101e-04  2.9201655899380039e-04  2.9683903128770276e-04  3.0175393130773469e-04  3.0678715119920782e-04  3.1196730289809448e-04  3.1732650737146964e-04  3.2290146251987923e-04  3.2873493061791629e-04  3.3487787933967982e-04  3.4139268411589147e-04  3.4835814328796678e-04  3.5587778701357036e-04  3.6409464014684501e-04  3.7321983614219410e-04  3.8359427992519133e-04  3.9583890102691847e-04  4.1127217279381383e-04  4.8800553802885531e-04  5.4792829439272866e-04  5.9762869800160606e-04  6.4020452683448848e-04  6.7735064859374659e-04  7.1011024648074729e-04  7.3918308150635118e-04  7.6506849723827425e-04  7.8813915597376080e-04  8.0868249068827226e-04  8.2692567279901621e-04  8.4305149923100326e-04  8.5720895458795321e-04  8.6952048535891033e-04  8.8008715426183615e-04  8.8899237658113478e-04  8.9630467704745868e-04  9.0207975043110947e-04  9.0636201375267388e-04  9.0918577757360204e-04  9.1057612425994605e-04  9.1054955440925220e-04  9.0911444403626667e-04  9.0627134170177207e-04  9.0201312467419860e-04  8.9632502519188353e-04  8.8918453106499895e-04  8.8056115854198962e-04  8.7041608897714244e-04  8.5870165378502581e-04  8.4536064377719418e-04  8.3032540837575024e-04  8.1351669617261600e-04  7.9484216906372995e-04  7.7419449499094523e-04  7.5144888482434774e-04  7.2645988000959801e-04  6.9905710730492428e-04  6.6903957432587230e-04  6.3616784679303205e-04  6.0015305361626494e-04  5.6064096675066644e-04  5.1718809965694537e-04  4.6922419001219691e-04  4.1598996089230422e-04  3.5642645990960543e-04  2.8896049939910025e-04  2.1104221385745048e-04  1.1801817552795477e-04  0.0000000000000000e+00  0.0000000000000000e+00  4.6676588411897953e-05  8.6387228392350928e-05  1.2111903113655855e-04  1.5211545286206794e-04  1.8017958071025303e-04  2.0585692511426685e-04  2.2953713807471340e-04  2.5151109449012286e-04  2.7200411664837461e-04  2.9119618684576967e-04  3.0923479235215397e-04  3.2624342076038935e-04  3.4232738126019823e-04  3.5757791980078934e-04  3.7207520918392331e-04  3.8589057544271914e-04  3.9908819257692747e-04  4.1172639907753069e-04  4.2385874039259038e-04  4.3553480977036481e-04  4.4680093902305871e-04  4.5770077671651089e-04  4.6827578170953975e-04  4.7856565335916053e-04  4.8860871514163609e-04  4.9844226532105265e-04  5.0810290625075225e-04  5.1762686268777547e-04  5.2705029900992635e-04  5.3640964540568067e-04  5.4574194399221868e-04  5.5508522752375090e-04  5.6447894610541915e-04  5.7396446150361792e-04  5.8358563484927609e-04  5.9338954274402815e-04  6.0342737059100181e-04  6.1375555302170038e-04  6.2443726406790473e-04  6.3554441209013083e-04  6.4716038061210599e-04  6.5938390262491138e-04  6.7233471383591932e-04  6.8616210202240488e-04  7.0105836461947064e-04  7.1728093743161578e-04  7.3519042449674010e-04  7.5531838253165245e-04  7.7848915138866890e-04  8.0602201012077248e-04  9.4282168492887852e-04  1.0560789415404530e-03  1.1523819707792058e-03  1.2358387607426010e-03  1.3090878210597501e-03  1.3739072558228902e-03  1.4315535823063834e-03  1.4829517514729847e-03  1.5288056359684969e-03  1.5696651339803117e-03  1.6059687012767905e-03  1.6380713695370434e-03  1.6662638337618986e-03  1.6907858325858516e-03  1.7118357551072995e-03  1.7295776750152439e-03  1.7441465811775898e-03  1.7556523109243042e-03  1.7641825270059833e-03  1.7698049722817877e-03  1.7725691650569298e-03  1.7725076493407949e-03  1.7696368800340426e-03  1.7639577980966222e-03  1.7554561318031388e-03  1.7441024450283358e-03  1.7298519405261217e-03  1.7126440141258165e-03  1.6924015435815542e-03  1.6690298823857661e-03  1.6424155129479998e-03  1.6124242935531908e-03  1.5788992072509839e-03  1.5416574850913578e-03  1.5004869260757032e-03  1.4551411642968477e-03  1.4053335279091198e-03  1.3507289748842266e-03  1.2909333432055325e-03  1.2254787592299908e-03  1.1538034009213609e-03  1.0752227137294556e-03  9.8888724186491778e-04  8.9371869949953755e-04  7.8830919364741457e-04  6.7075537934701700e-04  5.3837332382934483e-04  3.8719018050274674e-04  2.1103048825436849e-04  0.0000000000000000e+00  0.0000000000000000e+00  6.4478185688015015e-05  1.2106612416394178e-04  1.7145293182337058e-04  2.1688735472124478e-04  2.5827852967432846e-04  2.9629674650117423e-04  3.3144793231537308e-04  3.6412409496667977e-04  3.9463676704392612e-04  4.2323931044692864e-04  4.5014205511942021e-04  4.7552280298483583e-04  4.9953428614556259e-04  5.2230958312739760e-04  5.4396613710047225e-04  5.6460879725873752e-04  5.8433216461673920e-04  6.0322243398593816e-04  6.2135886555204976e-04  6.3881498073140258e-04  6.5565955080850900e-04  6.7195742890351301e-04  6.8777026335612053e-04  7.0315712189946951e-04  7.1817504990787150e-04  7.3287958180561733e-04  7.4732522194887374e-04  7.6156590964615144e-04  7.7565548230224479e-04  7.8964815089875985e-04  8.0359900320185762e-04  8.1756455236106152e-04  8.3160335221042683e-04  8.4577670606597599e-04  8.6014950386175521e-04  8.7479123422809989e-04  8.8977723539907156e-04  9.0519027452980064e-04  9.2112258378831773e-04  9.3767854116063318e-04  9.5497827711546587e-04  9.7316263671194030e-04  9.9240016658046887e-04  1.0128971863462627e-03  1.0349126320102918e-03  1.0587803204634069e-03  1.0849425418814980e-03  1.1139996743160091e-03  1.1467773118753321e-03  1.1843933870652021e-03  1.3711802500254329e-03  1.5311838160609987e-03  1.6699814828321654e-03  1.7916807242969589e-03  1.8992546190797627e-03  1.9948773734446788e-03  2.0801722404233071e-03  2.1563792903787830e-03  2.2244665024469304e-03  2.2852037079876862e-03  2.3392126287907892e-03  2.3870014438784801e-03  2.4289891783367463e-03  2.4655232561152977e-03  2.4968923585662645e-03  2.5233359871949510e-03  2.5450516617233519e-03  2.5622003850825342e-03  2.5749108110651661e-03  2.5832824194906346e-03  2.5873879143451903e-03  2.5872749978629551e-03  2.5829676286624860e-03  2.5744668388475349e-03  2.5617511594133980e-03  2.5447766825921984e-03  2.5234767718853349e-03  2.4977614138536009e-03  2.4675161888374915e-03  2.4326008192284837e-03  2.3928472320758486e-03  2.3480570456380287e-03  2.2979983541867705e-03  2.2424016379750137e-03  2.1809545599236631e-03  2.1132953183782199e-03  2.0390040924458063e-03  1.9575919211173290e-03  1.8684860643820398e-03  1.7710104460000376e-03  1.6643590771097316e-03  1.5475592453808769e-03  1.4194194545737340e-03  1.2784541724736194e-03  1.1227727348507991e-03  9.4991254000170353e-04  7.5658723606851475e-04  5.3831469606982311e-04  2.8891359698677221e-04  0.0000000000000000e+00  0.0000000000000000e+00  8.0170030176220382e-05  1.5194615075203065e-04  2.1673921727173728e-04  2.7570250452521220e-04  3.2975043676464156e-04  3.7960359890072866e-04  4.2583374971892477e-04  4.6890058601729709e-04  5.0917954611372153e-04  5.4698223277859848e-04  5.8257131469376252e-04  6.1617144991397174e-04  6.4797737720981860e-04  6.7815998946276596e-04  7.0687095883183095e-04  7.3424631187501998e-04  7.6040923464535369e-04  7.8547230669743313e-04  8.0953930709826778e-04  8.3270669679468695e-04  8.5506485457606161e-04  8.7669912473291171e-04  8.9769072091196048e-04  9.1811752097472525e-04  9.3805478078476336e-04  9.5757579004467140e-04  9.7675249009297402e-04  9.9565607164571208e-04  1.0143575696541414e-03  1.0329284726852568e-03  1.0514413655553906e-03  1.0699706265082111e-03  1.0885932043092502e-03  1.1073895066881037e-03  1.1264444403036688e-03  1.1458486549075445e-03  1.1657000622473839e-03  1.1861057259101120e-03  1.2071842553949329e-03  1.2290688916486176e-03  1.2519115499771839e-03  1.2758882005269147e-03  1.3012061294277535e-03  1.3281138447718860e-03  1.3569146566120263e-03  1.3879851705302215e-03  1.4217997482498367e-03  1.4589604609755533e-03  1.5002270347314486e-03  1.5465292683393391e-03  1.7763221120466524e-03  1.9774945898459444e-03  2.1546794201914980e-03  2.3116480345333093e-03  2.4513725575176621e-03  2.5761753784527552e-03  2.6878787155633819e-03  2.7879266671719106e-03  2.8774773754527555e-03  2.9574705667327157e-03  3.0286766620202009e-03  3.0917325988493389e-03  3.1471681795913089e-03  3.1954256549723316e-03  3.2368744358475090e-03  3.2718222534749448e-03  3.3005236934383324e-03  3.3231867566173145e-03  3.3399779126815120e-03  3.3510259802703971e-03  3.3564250749702406e-03  3.3562367991033506e-03  3.3504917979054116e-03  3.3391907692176337e-03  3.3223049844107204e-03  3.2997763540417260e-03  3.2715170505694183e-03  3.2374086805657606e-03  3.1973009786863274e-03  3.1510099736148291e-03  3.0983155504888814e-03  3.0389583027363052e-03  2.9726355258830554e-03  2.8989961526982655e-03  2.8176343572657138e-03  2.7280814568465639e-03  2.6297956023785562e-03  2.5221485527572455e-03  2.4044085472052592e-03  2.2757178832783897e-03  2.1350632161366494e-03  1.9812357361105866e-03  1.8127771585755236e-03  1.6279058009704059e-03  1.4244150332804592e-03  1.1995348097404836e-03  9.4974838437318773e-04  6.7056777072125879e-04  3.5630920362289726e-04  0.0000000000000000e+00  0.0000000000000000e+00  9.4255784264835838e-05  1.7980923139622310e-04  2.5785528198633584e-04  3.2943300934322510e-04  3.9541711395829653e-04  4.5653346261817420e-04  5.1338288164230056e-04  5.6646495326986184e-04  6.1619859861506451e-04  6.6293875985998078e-04  7.0698952096305968e-04  7.4861430476746938e-04  7.8804378331697421e-04  8.2548203868201711e-04  8.6111139688906427e-04  8.9509625676415763e-04  9.2758615539222252e-04  9.5871825106017287e-04  9.8861935934890094e-04  1.0174076447730166e-03  1.0451940459681390e-03  1.0720834945401106e-03  1.0981759745840849e-03  1.1235674603027076e-03  1.1483507622117852e-03  1.1726163074953302e-03  1.1964528767326383e-03  1.2199483171895819e-03  1.2431902519833508e-03  1.2662668046327348e-03  1.2892673598262384e-03  1.3122833838071415e-03  1.3354093318302600e-03  1.3587436760735189e-03  1.3823900957572720e-03  1.4064588828510249e-03  1.4310686327728072e-03  1.4563483114683302e-03  1.4824398202326844e-03  1.5095012200617200e-03  1.5377108306177370e-03  1.5672724859907806e-03  1.5984223058317440e-03  1.6314374067015007e-03  1.6666469791357063e-03  1.7044459567956151e-03  1.7453108196120767e-03  1.7898153866049179e-03  1.8386410977355694e-03  1.8925712577241892e-03  2.1600843399758908e-03  2.3977930110846276e-03  2.6095935735545722e-03  2.7988594361271165e-03  2.9684121980048214e-03  3.1205728672852990e-03  3.2572405762055574e-03  3.3799712872927220e-03  3.4900457654594651e-03  3.5885245214702173e-03  3.6762908537079581e-03  3.7540841099073631e-03  3.8225252862068202e-03  3.8821367483352076e-03  3.9333574763764948e-03  3.9765548974189848e-03  4.0120341019377189e-03  4.0400450352668805e-03  4.0607881027731703e-03  4.0744185139391991e-03  4.0810496061620223e-03  4.0807553256747946e-03  4.0735719946381737e-03  4.0594994557068675e-03  4.0385016549701214e-03  4.0105066985945646e-03  3.9754063957848518e-03  3.9330552791536928e-03  3.8832690717272309e-03  3.8258225460556213e-03  3.7604466935285438e-03  3.6868250889352540e-03  3.6045892939108775e-03  3.5133130896692799e-03  3.4125052595943622e-03  3.3016005493637641e-03  3.1799483074646077e-03  3.0467981403278369e-03  2.9012816884033603e-03  2.7423893237716115e-03  2.5689401680478899e-03  2.3795433243492953e-03  2.1725476426473697e-03  1.9459768395520191e-03  1.6974467875601482e-03  1.4240632813065832e-03  1.1223037209624929e-03  7.8789879881912704e-04  4.1575544678355782e-04  0.0000000000000000e+00  0.0000000000000000e+00  1.0704387548690006e-04  2.0517970858168995e-04  2.9543966993415800e-04  3.7875713690305591e-04  4.5595154710714487e-04  5.2773025597137096e-04  5.9469936096224162e-04  6.5737774680478403e-04  7.1621113521669376e-04  7.7158468708320041e-04  8.2383370453102667e-04  8.7325246487587145e-04  9.2010141260859225e-04  9.6461298505926365e-04  1.0069963332782507e-03  1.0474411629003237e-03  1.0861208790992069e-03  1.1231951828021365e-03  1.1588122344641462e-03  1.1931104769803396e-03  1.2262201899833685e-03  1.2582648328753070e-03  1.2893622225815613e-03  1.3196255834402358e-03  1.3491645002643394e-03  1.3780858009922259e-03  1.4064943921526679e-03  1.4344940683966257e-03  1.4621883164569471e-03  1.4896811340360924e-03  1.5170778853096853e-03  1.5444862170638563e-03  1.5720170631311281e-03  1.5997857700184414e-03  1.6279133838008756e-03  1.6565281479664776e-03  1.6857672745244894e-03  1.7157790669577171e-03  1.7467254940057516e-03  1.7787853377478422e-03  1.8121580664412649e-03  1.8470686069867286e-03  1.8837732012069405e-03  1.9225664970666670e-03  1.9637898964336808e-03  2.0078408579044561e-03  2.0551821867979335e-03  2.1063491680964703e-03  2.1619507118817213e-03  2.2226591530061712e-03  2.5236509790480936e-03  2.7939995409621016e-03  3.0370424268150445e-03  3.2557839384157656e-03  3.4528439310892037e-03  3.6304633164780599e-03  3.7905394346808264e-03  3.9346721403339521e-03  4.0642098776221668e-03  4.1802908999807320e-03  4.2838781214340500e-03  4.3757877008653336e-03  4.4567121069933949e-03  4.5272385757851837e-03  4.5878638239042766e-03  4.6390057578867810e-03  4.6810127816266792e-03  4.7141711797393203e-03  4.7387109492050914e-03  4.7548103665512069e-03  4.7625995100638533e-03  4.7621629027956303e-03  4.7535413992656241e-03  4.7367334040015405e-03  4.7116954811683336e-03  4.6783423895815609e-03  4.6365465548217312e-03  4.5861369685369253e-03  4.5268974830132763e-03  4.4585644453518812e-03  4.3808235886344197e-03  4.2933060655652930e-03  4.1955834711559200e-03  4.0871616524736113e-03  3.9674730420786860e-03  3.8358671735495230e-03  3.6915989377882697e-03  3.5338140126861305e-03  3.3615307423087324e-03  3.1736175553568049e-03  2.9687648079340032e-03  2.7454497505913344e-03  2.5018932481126431e-03  2.2360071270301528e-03  1.9453319961015294e-03  1.6269678069632076e-03  1.2775044193510737e-03  8.9296825680919767e-04  4.6881378469220688e-04  0.0000000000000000e+00  0.0000000000000000e+00  1.1874000910107442e-04  2.2842605750947846e-04  3.2996655226555041e-04  4.2420432122769567e-04  5.1190168159585597e-04  5.9373665319792357e-04  6.7030655943051067e-04  7.4213553777033845e-04  8.0968350836372683e-04  8.7335514872510030e-04  9.3350814520197555e-04  9.9046043759639822e-04  1.0444964171822597e-03  1.0958721556681946e-03  1.1448197882643503e-03  1.1915511824596805e-03  1.2362610153021445e-03  1.2791293665850197e-03  1.3203239187252085e-03  1.3600018387008280e-03  1.3983114041096886e-03  1.4353934243961878e-03  1.4713824994266171e-03  1.5064081506123348e-03  1.5405958544131113e-03  1.5740680040565664e-03  1.6069448224891815e-03  1.6393452477873052e-03  1.6713878114117205e-03  1.7031915297450028e-03  1.7348768303125520e-03  1.7665665360074700e-03  1.7983869336119559e-03  1.8304689570682435e-03  1.8629495214613123e-03  1.8959730506895212e-03  1.9296932504009570e-03  1.9642751878322976e-03  1.9998977510847652e-03  2.0367565704826319e-03  2.0750674904127524e-03  2.1150706743079286e-03  2.1570353949426232e-03  2.2012654839245471e-03  2.2481052516278937e-03  2.2979453915905946e-03  2.3512279015787292e-03  2.4084483871013081e-03  2.4701534286886754e-03  2.5369305081482654e-03  2.8678608822482118e-03  3.1675117469006395e-03  3.4387926543277404e-03  3.6843899596316963e-03  3.9067162714581730e-03  4.1078970328569074e-03  4.2897817057057381e-03  4.4539679617400935e-03  4.6018307047145188e-03  4.7345510793964920e-03  4.8531430311821765e-03  4.9584764651265274e-03  5.0512968651162437e-03  5.1322416239078569e-03  5.2018534855686471e-03  5.2605915285971836e-03  5.3088400869428978e-03  5.3469159528586269e-03  5.3750741477566685e-03  5.3935124929966813e-03  5.4023751647465559e-03  5.4017553761782494e-03  5.3916972956271512e-03  5.3721972798653362e-03  5.3432044761201076e-03  5.3046208237416143e-03  5.2563004653835886e-03  5.1980485571590023e-03  5.1296194464370715e-03  5.0507141637042043e-03  4.9609771500919624e-03  4.8599921135355755e-03  4.7472768726738940e-03  4.6222770069905602e-03  4.4843580826972474e-03  4.3327961649673721e-03  4.1667662574528166e-03  3.9853282303196824e-03  3.7874097127886339e-03  3.5717853474128728e-03  3.3370517577399825e-03  3.0815976219693963e-03  2.8035684721817180e-03  2.5008264243544156e-03  2.1709062628526097e-03  1.8109715310936443e-03  1.4177778926693953e-03  9.8765602437438310e-04  5.1653143517607181e-04  0.0000000000000000e+00  0.0000000000000000e+00  1.2949010340791914e-04  2.4981796008959913e-04  3.6179616039086953e-04  4.6619191414632062e-04  5.6371420485065921e-04  6.5500811579395678e-04  7.4065468579153878e-04  8.2117433648233313e-04  8.9703221174277476e-04  9.6864425425149828e-04  1.0363832899553769e-03  1.1005847231254854e-03  1.1615516628558538e-03  1.2195594321669052e-03  1.2748594816512750e-03  1.3276827633719023e-03  1.3782426330646708e-03  1.4267373495105895e-03  1.4733522351508398e-03  1.5182615549880732e-03  1.5616301633583696e-03  1